 Gaussian 09, Revision D.01,
 Gaussian 09:  EM64L-G09RevD.01 24-Apr-2013

 -------------------------------------------------
 # B2PLYP/def2tzvpp nosym scf(tight) force Pop=NPA
 -------------------------------------------------

 -----
 xPert
 -----
 Symbolic Z-matrix:
 Charge =  0 Multiplicity = 1

                          Input orientation:
 ---------------------------------------------------------------------
 Center     Atomic      Atomic             Coordinates (Angstroms)
 Number     Number       Type             X           Y           Z
 ---------------------------------------------------------------------
      1          1           0       -0.050000    0.758568   -0.469403
      2          1           0        0.000000   -0.758568   -0.469403
      3          8           0        0.000000    0.000000    0.117351
 ---------------------------------------------------------------------

 SCF Done:  E(RB2PLYP) =  -76.3297367729     A.U. after   10 cycles
 E2(B2PLYP) =    -0.8355425375D-01 E(B2PLYP) =    -0.76413291026648D+02

 Alpha  occ. eigenvalues --  -19.72562  -1.15276  -0.60871  -0.47080  -0.39610
 Alpha virt. eigenvalues --    0.06015   0.13533   0.42515   0.46154   0.48773
 Alpha virt. eigenvalues --    0.49414   0.60706   0.62585   0.71724   0.74945
 Alpha virt. eigenvalues --    0.84245   1.07834   1.24516   1.30663   1.80322

 Mulliken charges:
               1
     1  H    0.212996
     2  H    0.212332
     3  O   -0.425328
 Sum of Mulliken charges =   0.00000

 Dipole moment (field-independent basis, Debye):
    X=             -0.0850    Y=             -0.0008    Z=             -1.9952  Tot=              1.9970
 Quadrupole moment (field-independent basis, Debye-Ang):
   XX=             -7.4649   YY=             -4.3057   ZZ=             -6.2404
   XY=             -0.1043   XZ=              0.0624   YZ=              0.0010

 Summary of Natural Population Analysis:

                                       Natural Population
                Natural  -----------------------------------------------
    Atom  No    Charge         Core      Valence    Rydberg      Total
 -----------------------------------------------------------------------
      H    1    0.45702      0.00000     0.53644    0.00654     0.54298
      H    2    0.45693      0.00000     0.53652    0.00655     0.54307
      O    3   -0.91395      1.99986     6.90062    0.01347     8.91395
 =======================================================================
   * Total *    0.00000      1.99986     7.97357    0.02657    10.00000

 Normal termination of Gaussian 09 at Thu May 16 09:04:26 2019.
