 Gaussian 09, Revision D.01,
 Gaussian 09:  EM64L-G09RevD.01 24-Apr-2013

 -------------------------------------------------
 # B2PLYP/def2tzvpp nosym scf(tight) force Pop=NPA
 -------------------------------------------------

 -----
 xPert
 -----
 Symbolic Z-matrix:
 Charge =  0 Multiplicity = 1

                          Input orientation:
 ---------------------------------------------------------------------
 Center     Atomic      Atomic             Coordinates (Angstroms)
 Number     Number       Type             X           Y           Z
 ---------------------------------------------------------------------
      1          1           0        0.000000    0.708568   -0.469403
      2          1           0        0.000000   -0.758568   -0.469403
      3          8           0        0.000000    0.000000    0.117351
 ---------------------------------------------------------------------

 SCF Done:  E(RB2PLYP) =  -76.3285278095     A.U. after   10 cycles
 E2(B2PLYP) =    -0.8297444628D-01 E(B2PLYP) =    -0.76411502255774D+02

 Alpha  occ. eigenvalues --  -19.72310  -1.16438  -0.61441  -0.47707  -0.39835
 Alpha virt. eigenvalues --    0.06218   0.13856   0.42746   0.45926   0.49302
 Alpha virt. eigenvalues --    0.50714   0.61332   0.62774   0.71026   0.75725
 Alpha virt. eigenvalues --    0.83839   1.09516   1.25714   1.31983   1.77549

 Mulliken charges:
               1
     1  H    0.188140
     2  H    0.209808
     3  O   -0.397948
 Sum of Mulliken charges =   0.00000

 Dipole moment (field-independent basis, Debye):
    X=              0.0000    Y=             -0.0618    Z=             -2.0107  Tot=              2.0116
 Quadrupole moment (field-independent basis, Debye-Ang):
   XX=             -7.4227   YY=             -4.4189   ZZ=             -6.1747
   XY=              0.0000   XZ=              0.0000   YZ=              0.0322

 Summary of Natural Population Analysis:

                                       Natural Population
                Natural  -----------------------------------------------
    Atom  No    Charge         Core      Valence    Rydberg      Total
 -----------------------------------------------------------------------
      H    1    0.45083      0.00000     0.54235    0.00683     0.54917
      H    2    0.45414      0.00000     0.53935    0.00651     0.54586
      O    3   -0.90496      1.99985     6.89063    0.01449     8.90496
 =======================================================================
   * Total *    0.00000      1.99985     7.97233    0.02783    10.00000

 Normal termination of Gaussian 09 at Thu May 16 09:04:34 2019.
