 Gaussian 09, Revision D.01,
 Gaussian 09:  EM64L-G09RevD.01 24-Apr-2013

 -------------------------------------------------
 # B2PLYP/def2tzvpp nosym scf(tight) force Pop=NPA
 -------------------------------------------------

 -----
 xPert
 -----
 Symbolic Z-matrix:
 Charge =  0 Multiplicity = 1

                          Input orientation:
 ---------------------------------------------------------------------
 Center     Atomic      Atomic             Coordinates (Angstroms)
 Number     Number       Type             X           Y           Z
 ---------------------------------------------------------------------
      1          1           0        0.000000    0.758568   -0.519403
      2          1           0        0.000000   -0.758568   -0.469403
      3          8           0        0.000000    0.000000    0.117351
 ---------------------------------------------------------------------

 SCF Done:  E(RB2PLYP) =  -76.3282152581     A.U. after   10 cycles
 E2(B2PLYP) =    -0.8413257081D-01 E(B2PLYP) =    -0.76412347828950D+02

 Alpha  occ. eigenvalues --  -19.72894  -1.14765  -0.59786  -0.47315  -0.39551
 Alpha virt. eigenvalues --    0.05759   0.13338   0.41590   0.46387   0.48506
 Alpha virt. eigenvalues --    0.49452   0.60472   0.62710   0.70214   0.75109
 Alpha virt. eigenvalues --    0.83097   1.07628   1.24102   1.29518   1.82133

 Mulliken charges:
               1
     1  H    0.223841
     2  H    0.209254
     3  O   -0.433095
 Sum of Mulliken charges =   0.00000

 Dipole moment (field-independent basis, Debye):
    X=              0.0000    Y=             -0.0193    Z=             -2.0408  Tot=              2.0409
 Quadrupole moment (field-independent basis, Debye-Ang):
   XX=             -7.5013   YY=             -4.3745   ZZ=             -6.1563
   XY=              0.0000   XZ=              0.0000   YZ=             -0.0782

 Summary of Natural Population Analysis:

                                       Natural Population
                Natural  -----------------------------------------------
    Atom  No    Charge         Core      Valence    Rydberg      Total
 -----------------------------------------------------------------------
      H    1    0.45682      0.00000     0.53667    0.00652     0.54318
      H    2    0.45533      0.00000     0.53787    0.00680     0.54467
      O    3   -0.91215      1.99987     6.89918    0.01310     8.91215
 =======================================================================
   * Total *    0.00000      1.99987     7.97372    0.02642    10.00000

 Normal termination of Gaussian 09 at Thu May 16 09:04:40 2019.
