 Gaussian 09, Revision D.01,
 Gaussian 09:  EM64L-G09RevD.01 24-Apr-2013

 -------------------------------------------------
 # B2PLYP/def2tzvpp nosym scf(tight) force Pop=NPA
 -------------------------------------------------

 -----
 xPert
 -----
 Symbolic Z-matrix:
 Charge =  0 Multiplicity = 1

                          Input orientation:
 ---------------------------------------------------------------------
 Center     Atomic      Atomic             Coordinates (Angstroms)
 Number     Number       Type             X           Y           Z
 ---------------------------------------------------------------------
      1          1           0        0.000000    0.758568   -0.469403
      2          1           0        0.000000   -0.758568   -0.469403
      3          8           0        0.000000    0.000000    0.067351
 ---------------------------------------------------------------------

 SCF Done:  E(RB2PLYP) =  -76.3287562233     A.U. after   10 cycles
 E2(B2PLYP) =    -0.8244989088D-01 E(B2PLYP) =    -0.76411206114193D+02

 Alpha  occ. eigenvalues --  -19.71862  -1.16388  -0.63208  -0.46546  -0.39752
 Alpha virt. eigenvalues --    0.06491   0.13856   0.44302   0.45633   0.49250
 Alpha virt. eigenvalues --    0.49298   0.61338   0.62469   0.74555   0.75215
 Alpha virt. eigenvalues --    0.86813   1.08077   1.25244   1.33846   1.76877

 Mulliken charges:
               1
     1  H    0.202757
     2  H    0.202757
     3  O   -0.405514
 Sum of Mulliken charges =   0.00000

 Dipole moment (field-independent basis, Debye):
    X=              0.0000    Y=              0.0000    Z=             -1.9011  Tot=              1.9011
 Quadrupole moment (field-independent basis, Debye-Ang):
   XX=             -7.4096   YY=             -4.1642   ZZ=             -6.2015
   XY=              0.0000   XZ=              0.0000   YZ=              0.0000

 Summary of Natural Population Analysis:

                                       Natural Population
                Natural  -----------------------------------------------
    Atom  No    Charge         Core      Valence    Rydberg      Total
 -----------------------------------------------------------------------
      H    1    0.45811      0.00000     0.53561    0.00628     0.54189
      H    2    0.45811      0.00000     0.53561    0.00628     0.54189
      O    3   -0.91621      1.99984     6.90211    0.01427     8.91621
 =======================================================================
   * Total *    0.00000      1.99984     7.97333    0.02683    10.00000

 Normal termination of Gaussian 09 at Thu May 16 09:04:43 2019.
