 Gaussian 09, Revision D.01,
 Gaussian 09:  EM64L-G09RevD.01 24-Apr-2013

 -------------------------------------------------
 # B2PLYP/def2tzvpp nosym scf(tight) force Pop=NPA
 -------------------------------------------------

 -----
 xPert
 -----
 Symbolic Z-matrix:
 Charge =  0 Multiplicity = 1

                          Input orientation:
 ---------------------------------------------------------------------
 Center     Atomic      Atomic             Coordinates (Angstroms)
 Number     Number       Type             X           Y           Z
 ---------------------------------------------------------------------
      1          1           0        0.000000    0.758568   -0.469403
      2          1           0        0.000000   -0.758568   -0.469403
      3          8           0        0.050000    0.000000    0.117351
 ---------------------------------------------------------------------

 SCF Done:  E(RB2PLYP) =  -76.3297071261     A.U. after   10 cycles
 E2(B2PLYP) =    -0.8358171700D-01 E(B2PLYP) =    -0.76413288843127D+02

 Alpha  occ. eigenvalues --  -19.72580  -1.15259  -0.60808  -0.47106  -0.39610
 Alpha virt. eigenvalues --    0.06003   0.13526   0.42465   0.46166   0.48782
 Alpha virt. eigenvalues --    0.49416   0.60696   0.62594   0.71609   0.74969
 Alpha virt. eigenvalues --    0.84160   1.07850   1.24521   1.30586   1.80410

 Mulliken charges:
               1
     1  H    0.212746
     2  H    0.212746
     3  O   -0.425492
 Sum of Mulliken charges =   0.00000

 Dipole moment (field-independent basis, Debye):
    X=             -0.1698    Y=              0.0000    Z=             -1.9929  Tot=              2.0001
 Quadrupole moment (field-independent basis, Debye-Ang):
   XX=             -7.4773   YY=             -4.3088   ZZ=             -6.2423
   XY=              0.0000   XZ=              0.0251   YZ=              0.0000

 Summary of Natural Population Analysis:

                                       Natural Population
                Natural  -----------------------------------------------
    Atom  No    Charge         Core      Valence    Rydberg      Total
 -----------------------------------------------------------------------
      H    1    0.45686      0.00000     0.53658    0.00656     0.54314
      H    2    0.45686      0.00000     0.53658    0.00656     0.54314
      O    3   -0.91373      1.99986     6.90041    0.01346     8.91373
 =======================================================================
   * Total *    0.00000      1.99986     7.97356    0.02658    10.00000

 Normal termination of Gaussian 09 at Thu May 16 09:04:53 2019.
