 Gaussian 09, Revision D.01,
 Gaussian 09:  EM64L-G09RevD.01 24-Apr-2013

 -------------------------------------------------
 # B2PLYP/def2tzvpp nosym scf(tight) force Pop=NPA
 -------------------------------------------------

 -----
 xPert
 -----
 Symbolic Z-matrix:
 Charge =  0 Multiplicity = 1

                          Input orientation:
 ---------------------------------------------------------------------
 Center     Atomic      Atomic             Coordinates (Angstroms)
 Number     Number       Type             X           Y           Z
 ---------------------------------------------------------------------
      1          1           0        0.000000    0.808568   -0.469403
      2          1           0        0.000000   -0.758568   -0.469403
      3          8           0        0.000000    0.000000    0.117351
 ---------------------------------------------------------------------

 SCF Done:  E(RB2PLYP) =  -76.3276029943     A.U. after   10 cycles
 E2(B2PLYP) =    -0.8412422370D-01 E(B2PLYP) =    -0.76411727218018D+02

 Alpha  occ. eigenvalues --  -19.72775  -1.14294  -0.60317  -0.46483  -0.39406
 Alpha virt. eigenvalues --    0.05750   0.13214   0.42003   0.46195   0.47392
 Alpha virt. eigenvalues --    0.49500   0.60275   0.62446   0.72520   0.74186
 Alpha virt. eigenvalues --    0.84668   1.06198   1.23029   1.30020   1.82329

 Mulliken charges:
               1
     1  H    0.233111
     2  H    0.214577
     3  O   -0.447688
 Sum of Mulliken charges =   0.00000

 Dipole moment (field-independent basis, Debye):
    X=              0.0000    Y=              0.0615    Z=             -1.9815  Tot=              1.9824
 Quadrupole moment (field-independent basis, Debye-Ang):
   XX=             -7.5171   YY=             -4.1799   ZZ=             -6.3005
   XY=              0.0000   XZ=              0.0000   YZ=             -0.0313

 Summary of Natural Population Analysis:

                                       Natural Population
                Natural  -----------------------------------------------
    Atom  No    Charge         Core      Valence    Rydberg      Total
 -----------------------------------------------------------------------
      H    1    0.46168      0.00000     0.53207    0.00626     0.53832
      H    2    0.45936      0.00000     0.53403    0.00661     0.54064
      O    3   -0.92104      1.99986     6.90857    0.01260     8.92104
 =======================================================================
   * Total *    0.00000      1.99986     7.97467    0.02547    10.00000

 Normal termination of Gaussian 09 at Thu May 16 09:04:54 2019.
