 Gaussian 09, Revision D.01,
 Gaussian 09:  EM64L-G09RevD.01 24-Apr-2013

 -------------------------------------------------
 # B2PLYP/def2tzvpp nosym scf(tight) force Pop=NPA
 -------------------------------------------------

 -----
 xPert
 -----
 Symbolic Z-matrix:
 Charge =  0 Multiplicity = 1

                          Input orientation:
 ---------------------------------------------------------------------
 Center     Atomic      Atomic             Coordinates (Angstroms)
 Number     Number       Type             X           Y           Z
 ---------------------------------------------------------------------
      1          1           0        0.000000    0.758568   -0.469403
      2          1           0        0.000000   -0.758568   -0.469403
      3          8           0        0.000000    0.050000    0.117351
 ---------------------------------------------------------------------

 SCF Done:  E(RB2PLYP) =  -76.3266618064     A.U. after   10 cycles
 E2(B2PLYP) =    -0.8355428047D-01 E(B2PLYP) =    -0.76410216086874D+02

 Alpha  occ. eigenvalues --  -19.72537  -1.15435  -0.60868  -0.47088  -0.39626
 Alpha virt. eigenvalues --    0.05932   0.13536   0.41962   0.46130   0.49264
 Alpha virt. eigenvalues --    0.49386   0.60944   0.62653   0.71666   0.74916
 Alpha virt. eigenvalues --    0.84289   1.07858   1.23765   1.31684   1.78895

 Mulliken charges:
               1
     1  H    0.190316
     2  H    0.230576
     3  O   -0.420892
 Sum of Mulliken charges =   0.00000

 Dipole moment (field-independent basis, Debye):
    X=              0.0000    Y=             -0.1232    Z=             -1.9965  Tot=              2.0003
 Quadrupole moment (field-independent basis, Debye-Ang):
   XX=             -7.4695   YY=             -4.3093   ZZ=             -6.2365
   XY=              0.0000   XZ=              0.0000   YZ=             -0.0364

 Summary of Natural Population Analysis:

                                       Natural Population
                Natural  -----------------------------------------------
    Atom  No    Charge         Core      Valence    Rydberg      Total
 -----------------------------------------------------------------------
      H    1    0.45269      0.00000     0.54045    0.00687     0.54731
      H    2    0.45832      0.00000     0.53548    0.00620     0.54168
      O    3   -0.91100      1.99985     6.89756    0.01360     8.91100
 =======================================================================
   * Total *    0.00000      1.99985     7.97348    0.02667    10.00000

 Normal termination of Gaussian 09 at Thu May 16 09:04:55 2019.
