 Gaussian 09, Revision D.01,
 Gaussian 09:  EM64L-G09RevD.01 24-Apr-2013

 -------------------------------------------------
 # B2PLYP/def2tzvpp nosym scf(tight) force Pop=NPA
 -------------------------------------------------

 -----
 xPert
 -----
 Symbolic Z-matrix:
 Charge =  0 Multiplicity = 1

                          Input orientation:
 ---------------------------------------------------------------------
 Center     Atomic      Atomic             Coordinates (Angstroms)
 Number     Number       Type             X           Y           Z
 ---------------------------------------------------------------------
      1          1           0        0.000000    0.758568   -0.469403
      2          1           0        0.000000   -0.758568   -0.419403
      3          8           0        0.000000    0.000000    0.117351
 ---------------------------------------------------------------------

 SCF Done:  E(RB2PLYP) =  -76.3293243950     A.U. after   10 cycles
 E2(B2PLYP) =    -0.8297898129D-01 E(B2PLYP) =    -0.76412303376327D+02

 Alpha  occ. eigenvalues --  -19.72203  -1.15858  -0.62044  -0.46811  -0.39681
 Alpha virt. eigenvalues --    0.06250   0.13709   0.43326   0.45890   0.49120
 Alpha virt. eigenvalues --    0.49357   0.61043   0.62516   0.73443   0.74742
 Alpha virt. eigenvalues --    0.85536   1.07980   1.24733   1.32358   1.78212

 Mulliken charges:
               1
     1  H    0.215866
     2  H    0.199336
     3  O   -0.415201
 Sum of Mulliken charges =   0.00000

 Dipole moment (field-independent basis, Debye):
    X=              0.0000    Y=             -0.0168    Z=             -1.9493  Tot=              1.9494
 Quadrupole moment (field-independent basis, Debye-Ang):
   XX=             -7.4398   YY=             -4.2324   ZZ=             -6.3146
   XY=              0.0000   XZ=              0.0000   YZ=             -0.0830

 Summary of Natural Population Analysis:

                                       Natural Population
                Natural  -----------------------------------------------
    Atom  No    Charge         Core      Valence    Rydberg      Total
 -----------------------------------------------------------------------
      H    1    0.45883      0.00000     0.53488    0.00630     0.54117
      H    2    0.45601      0.00000     0.53746    0.00653     0.54399
      O    3   -0.91484      1.99985     6.90110    0.01389     8.91484
 =======================================================================
   * Total *    0.00000      1.99985     7.97343    0.02672    10.00000

 Normal termination of Gaussian 09 at Thu May 16 09:04:54 2019.
