 Gaussian 09, Revision D.01,
 Gaussian 09:  EM64L-G09RevD.01 24-Apr-2013

 -------------------------------------------------
 # B2PLYP/def2tzvpp nosym scf(tight) force Pop=NPA
 -------------------------------------------------

 -----
 xPert
 -----
 Symbolic Z-matrix:
 Charge =  0 Multiplicity = 1

                          Input orientation:
 ---------------------------------------------------------------------
 Center     Atomic      Atomic             Coordinates (Angstroms)
 Number     Number       Type             X           Y           Z
 ---------------------------------------------------------------------
      1          1           0        0.000000    0.758568   -0.469403
      2          1           0        0.000000   -0.758568   -0.469403
      3          8           0        0.000000    0.000000    0.167351
 ---------------------------------------------------------------------

 SCF Done:  E(RB2PLYP) =  -76.3265514091     A.U. after   10 cycles
 E2(B2PLYP) =    -0.8475833523D-01 E(B2PLYP) =    -0.76411309744371D+02

 Alpha  occ. eigenvalues --  -19.73244  -1.14203  -0.58691  -0.47554  -0.39491
 Alpha virt. eigenvalues --    0.05514   0.13110   0.40832   0.46611   0.48009
 Alpha virt. eigenvalues --    0.49488   0.60186   0.62861   0.68774   0.75298
 Alpha virt. eigenvalues --    0.81924   1.07372   1.24051   1.28069   1.84919

 Mulliken charges:
               1
     1  H    0.220760
     2  H    0.220760
     3  O   -0.441519
 Sum of Mulliken charges =   0.00000

 Dipole moment (field-independent basis, Debye):
    X=              0.0000    Y=              0.0000    Z=             -2.0844  Tot=              2.0844
 Quadrupole moment (field-independent basis, Debye-Ang):
   XX=             -7.5327   YY=             -4.4482   ZZ=             -6.2834
   XY=              0.0000   XZ=              0.0000   YZ=              0.0000

 Summary of Natural Population Analysis:

                                       Natural Population
                Natural  -----------------------------------------------
    Atom  No    Charge         Core      Valence    Rydberg      Total
 -----------------------------------------------------------------------
      H    1    0.45543      0.00000     0.53781    0.00676     0.54457
      H    2    0.45543      0.00000     0.53781    0.00676     0.54457
      O    3   -0.91086      1.99988     6.89829    0.01269     8.91086
 =======================================================================
   * Total *    0.00000      1.99988     7.97390    0.02622    10.00000

 Normal termination of Gaussian 09 at Thu May 16 09:04:56 2019.
