 Gaussian 09, Revision D.01,
 Gaussian 09:  EM64L-G09RevD.01 24-Apr-2013

 ------------------
 #B3LYP/6-31+G Freq
 ------------------

 -----
 xPert
 -----
 Symbolic Z-matrix:
 Charge =  0 Multiplicity = 1

                         Standard orientation:
 ---------------------------------------------------------------------
 Center     Atomic      Atomic             Coordinates (Angstroms)
 Number     Number       Type             X           Y           Z
 ---------------------------------------------------------------------
      1          8           0        0.000000    0.101212    0.000000
      2          1           0        0.800638   -0.454849    0.000000
      3          1           0       -0.800638   -0.354849    0.000000
 ---------------------------------------------------------------------

 SCF Done:  E(RB3LYP) =  -76.3980843800     A.U. after    9 cycles

 The electronic state is 1-A'.
 Alpha  occ. eigenvalues --  -19.15714  -1.04012  -0.57719  -0.36686  -0.32044
 Alpha virt. eigenvalues --    0.02426   0.11111   0.15493   0.16081   0.21367
 Alpha virt. eigenvalues --    0.23290   1.00085   1.06699   1.11335   1.14925
 Alpha virt. eigenvalues --    1.17712   1.45492

 Mulliken charges:
               1
     1  O   -0.876098
     2  H    0.436596
     3  H    0.439502
 Sum of Mulliken charges =   0.00000

 Dipole moment (field-independent basis, Debye):
    X=             -0.0656    Y=             -2.4465    Z=              0.0000  Tot=              2.4474
 Quadrupole moment (field-independent basis, Debye-Ang):
   XX=             -4.0178   YY=             -6.9939   ZZ=             -7.9132
   XY=             -0.2025   XZ=              0.0000   YZ=              0.0000

  Exact polarizability:   7.417  -0.391   5.520   0.000   0.000   5.302
 Approx polarizability:   8.686  -0.555   5.754   0.000   0.000   4.942

                      1                      2                      3
                     A'                     A'                     A'
 Frequencies --   1373.0653              3700.7556              4487.9463
 Red. masses --      1.0951                 1.0536                 1.0713
 Frc consts  --      1.2164                 8.5016                12.7128
 IR Inten    --    144.0166                23.0526                48.7414

 - Thermochemistry -
 -------------------
 Temperature   298.150 Kelvin.  Pressure   1.00000 Atm.
 Atom     1 has atomic number  8 and mass  15.99491

 Molecular mass:    18.01056 amu.
 Principal axes and moments of inertia in atomic units:
                           1         2         3
     Eigenvalues --     1.62729   4.64188   6.26917
           X            0.99538   0.09603   0.00000
           Y           -0.09603   0.99538   0.00000
           Z            0.00000   0.00000   1.00000
 This molecule is an asymmetric top.
 Rotational symmetry number  1.
 Rotational temperatures (Kelvin)     53.22586    18.65921    13.81584
 Rotational constants (GHZ):        1109.04825   388.79524   287.87566
 Zero-point vibrational energy      57192.1 (Joules/Mol)
                                   13.66923 (Kcal/Mol)
 Vibrational temperatures:   1975.53  5324.56  6457.15
          (Kelvin)

 Zero-point correction=                           0.021783 (Hartree/Particle)
 Thermal correction to Energy=                    0.024624
 Thermal correction to Enthalpy=                  0.025568
 Thermal correction to Gibbs Free Energy=         0.003587
 Sum of electronic and zero-point Energies=            -76.376301
 Sum of electronic and thermal Energies=               -76.373460
 Sum of electronic and thermal Enthalpies=             -76.372516
 Sum of electronic and thermal Free Energies=          -76.394498

                     E (Thermal)             CV                S
                      KCal/Mol        Cal/Mol-Kelvin    Cal/Mol-Kelvin
 Total                   15.452              6.078             46.264
 Electronic               0.000              0.000              0.000
 Translational            0.889              2.981             34.608
 Rotational               0.889              2.981             11.636
 Vibrational             13.674              0.116              0.020

 Normal termination of Gaussian 09 at Thu Feb 20 17:52:09 2020.
