 Gaussian 09, Revision D.01,
 Gaussian 09:  EM64L-G09RevD.01 24-Apr-2013

 -------------------------------------------------
 # B2PLYP/def2tzvpp nosym scf(tight) force Pop=NPA
 -------------------------------------------------

 -----
 xPert
 -----
 Symbolic Z-matrix:
 Charge =  0 Multiplicity = 1

                          Input orientation:
 ---------------------------------------------------------------------
 Center     Atomic      Atomic             Coordinates (Angstroms)
 Number     Number       Type             X           Y           Z
 ---------------------------------------------------------------------
      1          1           0        0.000000    0.758568   -0.469403
      2          1           0        0.000000   -0.758568   -0.469403
      3          8           0       -0.300000    0.000000    0.117351
 ---------------------------------------------------------------------

 SCF Done:  E(RB2PLYP) =  -76.3238677140     A.U. after   10 cycles
 E2(B2PLYP) =    -0.8534856979D-01 E(B2PLYP) =    -0.76409216283799D+02

 Alpha  occ. eigenvalues --  -19.73551  -1.13713  -0.57740  -0.47739  -0.39440
 Alpha virt. eigenvalues --    0.05272   0.12876   0.40102   0.46774   0.47556
 Alpha virt. eigenvalues --    0.49508   0.59976   0.63008   0.67628   0.75437
 Alpha virt. eigenvalues --    0.80948   1.07071   1.23841   1.27066   1.86517

 Mulliken charges:
               1
     1  H    0.224036
     2  H    0.224036
     3  O   -0.448073
 Sum of Mulliken charges =   0.00000

 Dipole moment (field-independent basis, Debye):
    X=              0.9659    Y=              0.0000    Z=             -1.8890  Tot=              2.1216
 Quadrupole moment (field-independent basis, Debye-Ang):
   XX=             -7.7138   YY=             -4.5148   ZZ=             -6.3715
   XY=              0.0000   XZ=             -0.1549   YZ=              0.0000

 Summary of Natural Population Analysis:

                                       Natural Population
                Natural  -----------------------------------------------
    Atom  No    Charge         Core      Valence    Rydberg      Total
 -----------------------------------------------------------------------
      H    1    0.45465      0.00000     0.53851    0.00684     0.54535
      H    2    0.45465      0.00000     0.53851    0.00684     0.54535
      O    3   -0.90931      1.99989     6.89709    0.01233     8.90931
 =======================================================================
   * Total *    0.00000      1.99989     7.97410    0.02601    10.00000

 Normal termination of Gaussian 09 at Thu May 16 09:05:19 2019.
