 Gaussian 09, Revision D.01,
 Gaussian 09:  EM64L-G09RevD.01 24-Apr-2013

 -------------------------------------------------
 # B2PLYP/def2tzvpp nosym scf(tight) force Pop=NPA
 -------------------------------------------------

 -----
 xPert
 -----
 Symbolic Z-matrix:
 Charge =  0 Multiplicity = 1

                          Input orientation:
 ---------------------------------------------------------------------
 Center     Atomic      Atomic             Coordinates (Angstroms)
 Number     Number       Type             X           Y           Z
 ---------------------------------------------------------------------
      1          1           0        0.000000    0.458568   -0.469403
      2          1           0        0.000000   -0.758568   -0.469403
      3          8           0        0.000000    0.000000    0.117351
 ---------------------------------------------------------------------

 SCF Done:  E(RB2PLYP) =  -76.2467526257     A.U. after   10 cycles
 E2(B2PLYP) =    -0.8082880335D-01 E(B2PLYP) =    -0.76327581429013D+02

 Alpha  occ. eigenvalues --  -19.70980  -1.23888  -0.62756  -0.51168  -0.41032
 Alpha virt. eigenvalues --    0.06312   0.15152   0.41747   0.45453   0.48540
 Alpha virt. eigenvalues --    0.57165   0.65113   0.67889   0.69271   0.77931
 Alpha virt. eigenvalues --    0.82786   1.16551   1.26972   1.45556   1.70526

 Mulliken charges:
               1
     1  H    0.020711
     2  H    0.189520
     3  O   -0.210231
 Sum of Mulliken charges =   0.00000

 Dipole moment (field-independent basis, Debye):
    X=              0.0000    Y=             -0.3737    Z=             -2.0823  Tot=              2.1156
 Quadrupole moment (field-independent basis, Debye-Ang):
   XX=             -7.1954   YY=             -4.9060   ZZ=             -5.8368
   XY=              0.0000   XZ=              0.0000   YZ=              0.2111

 Summary of Natural Population Analysis:

                                       Natural Population
                Natural  -----------------------------------------------
    Atom  No    Charge         Core      Valence    Rydberg      Total
 -----------------------------------------------------------------------
      H    1    0.39408      0.00000     0.59751    0.00842     0.60592
      H    2    0.43790      0.00000     0.55500    0.00710     0.56210
      O    3   -0.83197      1.99973     6.81201    0.02023     8.83197
 =======================================================================
   * Total *    0.00000      1.99973     7.96452    0.03575    10.00000

 Normal termination of Gaussian 09 at Thu May 16 09:05:18 2019.
