 Gaussian 09, Revision D.01,
 Gaussian 09:  EM64L-G09RevD.01 24-Apr-2013

 -------------------------------------------------
 # B2PLYP/def2tzvpp nosym scf(tight) force Pop=NPA
 -------------------------------------------------

 -----
 xPert
 -----
 Symbolic Z-matrix:
 Charge =  0 Multiplicity = 1

                          Input orientation:
 ---------------------------------------------------------------------
 Center     Atomic      Atomic             Coordinates (Angstroms)
 Number     Number       Type             X           Y           Z
 ---------------------------------------------------------------------
      1          1           0        0.000000    0.758568   -0.469403
      2          1           0        0.000000   -1.058568   -0.469403
      3          8           0        0.000000    0.000000    0.117351
 ---------------------------------------------------------------------

 SCF Done:  E(RB2PLYP) =  -76.2859240171     A.U. after   12 cycles
 E2(B2PLYP) =    -0.8752222600D-01 E(B2PLYP) =    -0.76373446243125D+02

 Alpha  occ. eigenvalues --  -19.73663  -1.10797  -0.57144  -0.43724  -0.38550
 Alpha virt. eigenvalues --    0.02794   0.11659   0.35133   0.44322   0.48493
 Alpha virt. eigenvalues --    0.49581   0.59119   0.62133   0.70917   0.76804
 Alpha virt. eigenvalues --    0.86067   0.98076   1.14441   1.29299   1.74551

 Mulliken charges:
               1
     1  H    0.222995
     2  H    0.278923
     3  O   -0.501918
 Sum of Mulliken charges =   0.00000

 Dipole moment (field-independent basis, Debye):
    X=              0.0000    Y=             -0.3560    Z=             -1.8999  Tot=              1.9330
 Quadrupole moment (field-independent basis, Debye-Ang):
   XX=             -7.7424   YY=             -3.4760   ZZ=             -6.5837
   XY=              0.0000   XZ=              0.0000   YZ=              0.1756

 Summary of Natural Population Analysis:

                                       Natural Population
                Natural  -----------------------------------------------
    Atom  No    Charge         Core      Valence    Rydberg      Total
 -----------------------------------------------------------------------
      H    1    0.46586      0.00000     0.52715    0.00700     0.53414
      H    2    0.47053      0.00000     0.52480    0.00467     0.52947
      O    3   -0.93638      1.99986     6.92688    0.00965     8.93638
 =======================================================================
   * Total *    0.00000      1.99986     7.97883    0.02132    10.00000

 Normal termination of Gaussian 09 at Thu May 16 09:05:28 2019.
