 Gaussian 09, Revision D.01,
 Gaussian 09:  EM64L-G09RevD.01 24-Apr-2013

 -------------------------------------------------
 # B2PLYP/def2tzvpp nosym scf(tight) force Pop=NPA
 -------------------------------------------------

 -----
 xPert
 -----
 Symbolic Z-matrix:
 Charge =  0 Multiplicity = 1

                          Input orientation:
 ---------------------------------------------------------------------
 Center     Atomic      Atomic             Coordinates (Angstroms)
 Number     Number       Type             X           Y           Z
 ---------------------------------------------------------------------
      1          1           0        0.000000    0.758568   -0.469403
      2          1           0        0.000000   -0.758568   -0.469403
      3          8           0        0.000000   -0.300000    0.117351
 ---------------------------------------------------------------------

 SCF Done:  E(RB2PLYP) =  -76.2144475939     A.U. after   11 cycles
 E2(B2PLYP) =    -0.8440674639D-01 E(B2PLYP) =    -0.76298854340305D+02

 Alpha  occ. eigenvalues --  -19.72168  -1.19470  -0.59853  -0.47089  -0.39995
 Alpha virt. eigenvalues --    0.02888   0.13417   0.34551   0.45336   0.48592
 Alpha virt. eigenvalues --    0.53483   0.64012   0.67114   0.70273   0.73705
 Alpha virt. eigenvalues --    0.84754   1.07475   1.13505   1.45211   1.74276

 Mulliken charges:
               1
     1  H    0.258562
     2  H    0.028820
     3  O   -0.287382
 Sum of Mulliken charges =   0.00000

 Dipole moment (field-independent basis, Debye):
    X=              0.0000    Y=              0.7088    Z=             -2.0059  Tot=              2.1275
 Quadrupole moment (field-independent basis, Debye-Ang):
   XX=             -7.4571   YY=             -4.5402   ZZ=             -6.1721
   XY=              0.0000   XZ=              0.0000   YZ=              0.2150

 Summary of Natural Population Analysis:

                                       Natural Population
                Natural  -----------------------------------------------
    Atom  No    Charge         Core      Valence    Rydberg      Total
 -----------------------------------------------------------------------
      H    1    0.43329      0.00000     0.56209    0.00462     0.56671
      H    2    0.38357      0.00000     0.60792    0.00851     0.61643
      O    3   -0.81686      1.99966     6.80089    0.01631     8.81686
 =======================================================================
   * Total *    0.00000      1.99966     7.97090    0.02944    10.00000

 Normal termination of Gaussian 09 at Thu May 16 09:05:26 2019.
