 Gaussian 09, Revision D.01,
 Gaussian 09:  EM64L-G09RevD.01 24-Apr-2013

 -------------------------------------------------
 # B2PLYP/def2tzvpp nosym scf(tight) force Pop=NPA
 -------------------------------------------------

 -----
 xPert
 -----
 Symbolic Z-matrix:
 Charge =  0 Multiplicity = 1

                          Input orientation:
 ---------------------------------------------------------------------
 Center     Atomic      Atomic             Coordinates (Angstroms)
 Number     Number       Type             X           Y           Z
 ---------------------------------------------------------------------
      1          1           0        0.000000    0.758568   -0.769403
      2          1           0        0.000000   -0.758568   -0.469403
      3          8           0        0.000000    0.000000    0.117351
 ---------------------------------------------------------------------

 SCF Done:  E(RB2PLYP) =  -76.2977269019     A.U. after   10 cycles
 E2(B2PLYP) =    -0.8769657368D-01 E(B2PLYP) =    -0.76385423475591D+02

 Alpha  occ. eigenvalues --  -19.74486  -1.12491  -0.55039  -0.47629  -0.39303
 Alpha virt. eigenvalues --    0.03507   0.11962   0.35796   0.47130   0.47596
 Alpha virt. eigenvalues --    0.49371   0.59882   0.63142   0.65285   0.74600
 Alpha virt. eigenvalues --    0.79451   1.04960   1.17354   1.29442   1.78733

 Mulliken charges:
               1
     1  H    0.245624
     2  H    0.199170
     3  O   -0.444794
 Sum of Mulliken charges =   0.00000

 Dipole moment (field-independent basis, Debye):
    X=              0.0000    Y=             -0.1502    Z=             -2.2258  Tot=              2.2308
 Quadrupole moment (field-independent basis, Debye-Ang):
   XX=             -7.6673   YY=             -4.7383   ZZ=             -5.6725
   XY=              0.0000   XZ=              0.0000   YZ=             -0.4024

 Summary of Natural Population Analysis:

                                       Natural Population
                Natural  -----------------------------------------------
    Atom  No    Charge         Core      Valence    Rydberg      Total
 -----------------------------------------------------------------------
      H    1    0.44243      0.00000     0.55193    0.00564     0.55757
      H    2    0.45017      0.00000     0.54193    0.00791     0.54983
      O    3   -0.89260      1.99988     6.88116    0.01155     8.89260
 =======================================================================
   * Total *    0.00000      1.99988     7.97502    0.02510    10.00000

 Normal termination of Gaussian 09 at Thu May 16 09:05:27 2019.
