 Gaussian 09, Revision D.01,
 Gaussian 09:  EM64L-G09RevD.01 24-Apr-2013

 -------------------------------------------------
 # B2PLYP/def2tzvpp nosym scf(tight) force Pop=NPA
 -------------------------------------------------

 -----
 xPert
 -----
 Symbolic Z-matrix:
 Charge =  0 Multiplicity = 1

                          Input orientation:
 ---------------------------------------------------------------------
 Center     Atomic      Atomic             Coordinates (Angstroms)
 Number     Number       Type             X           Y           Z
 ---------------------------------------------------------------------
      1          1           0        0.000000    0.758568   -0.469403
      2          1           0        0.000000   -0.758568   -0.169403
      3          8           0        0.000000    0.000000    0.117351
 ---------------------------------------------------------------------

 SCF Done:  E(RB2PLYP) =  -76.2976799038     A.U. after   10 cycles
 E2(B2PLYP) =    -0.8102506156D-01 E(B2PLYP) =    -0.76378704965336D+02

 Alpha  occ. eigenvalues --  -19.70517  -1.18362  -0.67574  -0.44890  -0.39938
 Alpha virt. eigenvalues --    0.06988   0.13994   0.44084   0.45334   0.48965
 Alpha virt. eigenvalues --    0.50840   0.61627   0.64617   0.73032   0.84499
 Alpha virt. eigenvalues --    0.93047   1.06276   1.26538   1.42684   1.72474

 Mulliken charges:
               1
     1  H    0.240150
     2  H    0.127310
     3  O   -0.367461
 Sum of Mulliken charges =   0.00000

 Dipole moment (field-independent basis, Debye):
    X=              0.0000    Y=             -0.0612    Z=             -1.6791  Tot=              1.6802
 Quadrupole moment (field-independent basis, Debye-Ang):
   XX=             -7.3193   YY=             -3.9235   ZZ=             -6.5910
   XY=              0.0000   XZ=              0.0000   YZ=             -0.5714

 Summary of Natural Population Analysis:

                                       Natural Population
                Natural  -----------------------------------------------
    Atom  No    Charge         Core      Valence    Rydberg      Total
 -----------------------------------------------------------------------
      H    1    0.47558      0.00000     0.51917    0.00525     0.52442
      H    2    0.44038      0.00000     0.55350    0.00612     0.55962
      O    3   -0.91596      1.99975     6.90117    0.01504     8.91596
 =======================================================================
   * Total *    0.00000      1.99975     7.97384    0.02641    10.00000

 Normal termination of Gaussian 09 at Thu May 16 09:05:36 2019.
