 Gaussian 09, Revision D.01,
 Gaussian 09:  EM64L-G09RevD.01 24-Apr-2013

 -------------------------------------------------
 # B2PLYP/def2tzvpp nosym scf(tight) force Pop=NPA
 -------------------------------------------------

 -----
 xPert
 -----
 Symbolic Z-matrix:
 Charge =  0 Multiplicity = 1

                          Input orientation:
 ---------------------------------------------------------------------
 Center     Atomic      Atomic             Coordinates (Angstroms)
 Number     Number       Type             X           Y           Z
 ---------------------------------------------------------------------
      1          1           0        0.000000    0.758568   -0.469403
      2          1           0        0.000000   -0.758568   -0.469403
      3          8           0        0.000000    0.000000    0.417351
 ---------------------------------------------------------------------

 SCF Done:  E(RB2PLYP) =  -76.2631115879     A.U. after   11 cycles
 E2(B2PLYP) =    -0.9276320291D-01 E(B2PLYP) =    -0.76355874790812D+02

 Alpha  occ. eigenvalues --  -19.76487  -1.09052  -0.49452  -0.48722  -0.39072
 Alpha virt. eigenvalues --    0.02193   0.08970   0.34410   0.39681   0.47962
 Alpha virt. eigenvalues --    0.49151   0.58557   0.59581   0.66259   0.73102
 Alpha virt. eigenvalues --    0.76486   1.02198   1.19277   1.21436   1.76473

 Mulliken charges:
               1
     1  H    0.235403
     2  H    0.235403
     3  O   -0.470807
 Sum of Mulliken charges =   0.00000

 Dipole moment (field-independent basis, Debye):
    X=              0.0000    Y=              0.0000    Z=             -2.4397  Tot=              2.4397
 Quadrupole moment (field-independent basis, Debye-Ang):
   XX=             -7.8650   YY=             -5.2213   ZZ=             -6.5954
   XY=              0.0000   XZ=              0.0000   YZ=              0.0000

 Summary of Natural Population Analysis:

                                       Natural Population
                Natural  -----------------------------------------------
    Atom  No    Charge         Core      Valence    Rydberg      Total
 -----------------------------------------------------------------------
      H    1    0.44252      0.00000     0.55084    0.00664     0.55748
      H    2    0.44252      0.00000     0.55084    0.00664     0.55748
      O    3   -0.88504      1.99995     6.87587    0.00923     8.88504
 =======================================================================
   * Total *    0.00000      1.99995     7.97755    0.02250    10.00000

 Normal termination of Gaussian 09 at Thu May 16 09:06:00 2019.
