 Gaussian 09, Revision D.01,
 Gaussian 09:  EM64L-G09RevD.01 24-Apr-2013

 -------------------------------------------------
 # B2PLYP/def2tzvpp nosym scf(tight) force Pop=NPA
 -------------------------------------------------

 -----
 xPert
 -----
 Symbolic Z-matrix:
 Charge =  0 Multiplicity = 1

                          Input orientation:
 ---------------------------------------------------------------------
 Center     Atomic      Atomic             Coordinates (Angstroms)
 Number     Number       Type             X           Y           Z
 ---------------------------------------------------------------------
      1          1           0        0.000000    0.758568   -0.469403
      2          1           0        0.000000   -0.758568   -0.669403
      3          8           0        0.000000    0.000000    0.117351
 ---------------------------------------------------------------------

 SCF Done:  E(RB2PLYP) =  -76.3135773891     A.U. after   10 cycles
 E2(B2PLYP) =    -0.8617368844D-01 E(B2PLYP) =    -0.76399751077573D+02

 Alpha  occ. eigenvalues --  -19.73881  -1.13298  -0.56708  -0.47703  -0.39381
 Alpha virt. eigenvalues --    0.04630   0.12549   0.38128   0.46969   0.47795
 Alpha virt. eigenvalues --    0.49462   0.60088   0.63172   0.66595   0.75119
 Alpha virt. eigenvalues --    0.80406   1.06301   1.20538   1.28896   1.82407

 Mulliken charges:
               1
     1  H    0.202157
     2  H    0.244415
     3  O   -0.446572
 Sum of Mulliken charges =   0.00000

 Dipole moment (field-independent basis, Debye):
    X=              0.0000    Y=              0.0917    Z=             -2.1597  Tot=              2.1617
 Quadrupole moment (field-independent basis, Debye-Ang):
   XX=             -7.5999   YY=             -4.5935   ZZ=             -5.8787
   XY=              0.0000   XZ=              0.0000   YZ=              0.2856

 Summary of Natural Population Analysis:

                                       Natural Population
                Natural  -----------------------------------------------
    Atom  No    Charge         Core      Valence    Rydberg      Total
 -----------------------------------------------------------------------
      H    1    0.45185      0.00000     0.54064    0.00751     0.54815
      H    2    0.45068      0.00000     0.54320    0.00612     0.54932
      O    3   -0.90253      1.99988     6.89059    0.01206     8.90253
 =======================================================================
   * Total *    0.00000      1.99988     7.97443    0.02569    10.00000

 Normal termination of Gaussian 09 at Thu May 16 09:05:08 2019.
