 Gaussian 09, Revision D.01,
 Gaussian 09:  EM64L-G09RevD.01 24-Apr-2013

 -------------------------------------------------
 # B2PLYP/def2tzvpp nosym scf(tight) force Pop=NPA
 -------------------------------------------------

 -----
 xPert
 -----
 Symbolic Z-matrix:
 Charge =  0 Multiplicity = 1

                          Input orientation:
 ---------------------------------------------------------------------
 Center     Atomic      Atomic             Coordinates (Angstroms)
 Number     Number       Type             X           Y           Z
 ---------------------------------------------------------------------
      1          1           0        0.000000    0.758568   -0.469403
      2          1           0        0.000000   -0.758568   -0.469403
      3          8           0        0.000000    0.000000   -0.082649
 ---------------------------------------------------------------------

 SCF Done:  E(RB2PLYP) =  -76.2992926232     A.U. after   10 cycles
 E2(B2PLYP) =    -0.8007484619D-01 E(B2PLYP) =    -0.76379367469361D+02

 Alpha  occ. eigenvalues --  -19.69937  -1.19296  -0.70353  -0.44627  -0.40218
 Alpha virt. eigenvalues --    0.07675   0.14221   0.44340   0.48789   0.49051
 Alpha virt. eigenvalues --    0.49494   0.63182   0.63570   0.72963   0.88243
 Alpha virt. eigenvalues --    0.95716   1.06849   1.30684   1.44599   1.70883

 Mulliken charges:
               1
     1  H    0.169557
     2  H    0.169557
     3  O   -0.339114
 Sum of Mulliken charges =   0.00000

 Dipole moment (field-independent basis, Debye):
    X=              0.0000    Y=              0.0000    Z=             -1.5595  Tot=              1.5595
 Quadrupole moment (field-independent basis, Debye-Ang):
   XX=             -7.2481   YY=             -3.8036   ZZ=             -6.1582
   XY=              0.0000   XZ=              0.0000   YZ=              0.0000

 Summary of Natural Population Analysis:

                                       Natural Population
                Natural  -----------------------------------------------
    Atom  No    Charge         Core      Valence    Rydberg      Total
 -----------------------------------------------------------------------
      H    1    0.46065      0.00000     0.53387    0.00548     0.53935
      H    2    0.46065      0.00000     0.53387    0.00548     0.53935
      O    3   -0.92130      1.99977     6.90596    0.01557     8.92130
 =======================================================================
   * Total *    0.00000      1.99977     7.97370    0.02653    10.00000

 Normal termination of Gaussian 09 at Thu May 16 09:05:04 2019.
