 Gaussian 09, Revision D.01,
 Gaussian 09:  EM64L-G09RevD.01 24-Apr-2013

 -------------------------------------------------
 # B2PLYP/def2tzvpp nosym scf(tight) force Pop=NPA
 -------------------------------------------------

 -----
 xPert
 -----
 Symbolic Z-matrix:
 Charge =  0 Multiplicity = 1

                          Input orientation:
 ---------------------------------------------------------------------
 Center     Atomic      Atomic             Coordinates (Angstroms)
 Number     Number       Type             X           Y           Z
 ---------------------------------------------------------------------
      1          1           0        0.000000    0.758568   -0.469403
      2          1           0        0.200000   -0.758568   -0.469403
      3          8           0        0.000000    0.000000    0.117351
 ---------------------------------------------------------------------

 SCF Done:  E(RB2PLYP) =  -76.3290235770     A.U. after   10 cycles
 E2(B2PLYP) =    -0.8387944759D-01 E(B2PLYP) =    -0.76412903024550D+02

 Alpha  occ. eigenvalues --  -19.72725  -1.14856  -0.60382  -0.47008  -0.39539
 Alpha virt. eigenvalues --    0.05874   0.13392   0.42115   0.46276   0.48281
 Alpha virt. eigenvalues --    0.49450   0.60510   0.62580   0.71406   0.74809
 Alpha virt. eigenvalues --    0.83972   1.07369   1.24035   1.30065   1.81483

 Mulliken charges:
               1
     1  H    0.211868
     2  H    0.221851
     3  O   -0.433719
 Sum of Mulliken charges =   0.00000

 Dipole moment (field-independent basis, Debye):
    X=              0.3358    Y=              0.0122    Z=             -1.9795  Tot=              2.0078
 Quadrupole moment (field-independent basis, Debye-Ang):
   XX=             -7.3897   YY=             -4.3493   ZZ=             -6.2698
   XY=             -0.4115   XZ=             -0.2459   YZ=             -0.0157

 Summary of Natural Population Analysis:

                                       Natural Population
                Natural  -----------------------------------------------
    Atom  No    Charge         Core      Valence    Rydberg      Total
 -----------------------------------------------------------------------
      H    1    0.45700      0.00000     0.53636    0.00664     0.54300
      H    2    0.45822      0.00000     0.53532    0.00646     0.54178
      O    3   -0.91521      1.99986     6.90222    0.01313     8.91521
 =======================================================================
   * Total *    0.00000      1.99986     7.97390    0.02624    10.00000

 Normal termination of Gaussian 09 at Thu May 16 09:05:14 2019.
