 Gaussian 09, Revision D.01,
 Gaussian 09:  EM64L-G09RevD.01 24-Apr-2013

 -------------------------------------------------
 # B2PLYP/def2tzvpp nosym scf(tight) force Pop=NPA
 -------------------------------------------------

 -----
 xPert
 -----
 Symbolic Z-matrix:
 Charge =  0 Multiplicity = 1

                          Input orientation:
 ---------------------------------------------------------------------
 Center     Atomic      Atomic             Coordinates (Angstroms)
 Number     Number       Type             X           Y           Z
 ---------------------------------------------------------------------
      1          1           0        0.000000    0.758568   -0.469403
      2          1           0        0.000000   -0.758568   -0.469403
      3          8           0        0.200000    0.000000    0.117351
 ---------------------------------------------------------------------

 SCF Done:  E(RB2PLYP) =  -76.3280820471     A.U. after   10 cycles
 E2(B2PLYP) =    -0.8432946171D-01 E(B2PLYP) =    -0.76412411508757D+02

 Alpha  occ. eigenvalues --  -19.73010  -1.14576  -0.59425  -0.47404  -0.39531
 Alpha virt. eigenvalues --    0.05691   0.13270   0.41399   0.46463   0.48318
 Alpha virt. eigenvalues --    0.49467   0.60356   0.62755   0.69717   0.75187
 Alpha virt. eigenvalues --    0.82690   1.07568   1.24208   1.28899   1.83196

 Mulliken charges:
               1
     1  H    0.218080
     2  H    0.218080
     3  O   -0.436161
 Sum of Mulliken charges =   0.00000

 Dipole moment (field-independent basis, Debye):
    X=             -0.6631    Y=              0.0000    Z=             -1.9455  Tot=              2.0554
 Quadrupole moment (field-independent basis, Debye-Ang):
   XX=             -7.5827   YY=             -4.3985   ZZ=             -6.2992
   XY=              0.0000   XZ=              0.1019   YZ=              0.0000

 Summary of Natural Population Analysis:

                                       Natural Population
                Natural  -----------------------------------------------
    Atom  No    Charge         Core      Valence    Rydberg      Total
 -----------------------------------------------------------------------
      H    1    0.45597      0.00000     0.53733    0.00670     0.54403
      H    2    0.45597      0.00000     0.53733    0.00670     0.54403
      O    3   -0.91194      1.99987     6.89910    0.01296     8.91194
 =======================================================================
   * Total *    0.00000      1.99987     7.97377    0.02636    10.00000

 Normal termination of Gaussian 09 at Thu May 16 09:05:14 2019.
