 Gaussian 09, Revision D.01,
 Gaussian 09:  EM64L-G09RevD.01 24-Apr-2013

 -------------------------------------------------
 # B2PLYP/def2tzvpp nosym scf(tight) force Pop=NPA
 -------------------------------------------------

 -----
 xPert
 -----
 Symbolic Z-matrix:
 Charge =  0 Multiplicity = 1

                          Input orientation:
 ---------------------------------------------------------------------
 Center     Atomic      Atomic             Coordinates (Angstroms)
 Number     Number       Type             X           Y           Z
 ---------------------------------------------------------------------
      1          1           0        0.000000    0.958568   -0.469403
      2          1           0        0.000000   -0.758568   -0.469403
      3          8           0        0.000000    0.000000    0.117351
 ---------------------------------------------------------------------

 SCF Done:  E(RB2PLYP) =  -76.3068654615     A.U. after   10 cycles
 E2(B2PLYP) =    -0.8607946807D-01 E(B2PLYP) =    -0.76392944929613D+02

 Alpha  occ. eigenvalues --  -19.73352  -1.11916  -0.58408  -0.44784  -0.38850
 Alpha virt. eigenvalues --    0.04321   0.12223   0.38009   0.44669   0.47830
 Alpha virt. eigenvalues --    0.49620   0.59461   0.62208   0.72079   0.75090
 Alpha virt. eigenvalues --    0.85653   1.01248   1.17880   1.29372   1.78532

 Mulliken charges:
               1
     1  H    0.270703
     2  H    0.219959
     3  O   -0.490662
 Sum of Mulliken charges =   0.00000

 Dipole moment (field-independent basis, Debye):
    X=              0.0000    Y=              0.2422    Z=             -1.9345  Tot=              1.9496
 Quadrupole moment (field-independent basis, Debye-Ang):
   XX=             -7.6549   YY=             -3.7739   ZZ=             -6.4764
   XY=              0.0000   XZ=              0.0000   YZ=             -0.1204

 Summary of Natural Population Analysis:

                                       Natural Population
                Natural  -----------------------------------------------
    Atom  No    Charge         Core      Valence    Rydberg      Total
 -----------------------------------------------------------------------
      H    1    0.46962      0.00000     0.52506    0.00532     0.53038
      H    2    0.46439      0.00000     0.52876    0.00685     0.53561
      O    3   -0.93402      1.99987     6.92360    0.01055     8.93402
 =======================================================================
   * Total *    0.00000      1.99987     7.97742    0.02271    10.00000

 Normal termination of Gaussian 09 at Thu May 16 09:05:23 2019.
