 Gaussian 09, Revision D.01,
 Gaussian 09:  EM64L-G09RevD.01 24-Apr-2013

 -------------------------------------------------
 # B2PLYP/def2tzvpp nosym scf(tight) force Pop=NPA
 -------------------------------------------------

 -----
 xPert
 -----
 Symbolic Z-matrix:
 Charge =  0 Multiplicity = 1

                          Input orientation:
 ---------------------------------------------------------------------
 Center     Atomic      Atomic             Coordinates (Angstroms)
 Number     Number       Type             X           Y           Z
 ---------------------------------------------------------------------
      1          1           0        0.000000    0.758568   -0.469403
      2          1           0        0.000000   -0.558568   -0.469403
      3          8           0        0.000000    0.000000    0.117351
 ---------------------------------------------------------------------

 SCF Done:  E(RB2PLYP) =  -76.2973190140     A.U. after   10 cycles
 E2(B2PLYP) =    -0.8153896262D-01 E(B2PLYP) =    -0.76378857976626D+02

 Alpha  occ. eigenvalues --  -19.71515  -1.20573  -0.62572  -0.49711  -0.40541
 Alpha virt. eigenvalues --    0.06423   0.14682   0.42414   0.45516   0.48872
 Alpha virt. eigenvalues --    0.55691   0.63826   0.65021   0.69107   0.77674
 Alpha virt. eigenvalues --    0.82724   1.14117   1.26918   1.39505   1.72020

 Mulliken charges:
               1
     1  H    0.199157
     2  H    0.098070
     3  O   -0.297228
 Sum of Mulliken charges =   0.00000

 Dipole moment (field-independent basis, Debye):
    X=              0.0000    Y=              0.2478    Z=             -2.0535  Tot=              2.0684
 Quadrupole moment (field-independent basis, Debye-Ang):
   XX=             -7.2826   YY=             -4.7286   ZZ=             -5.9754
   XY=              0.0000   XZ=              0.0000   YZ=             -0.1349

 Summary of Natural Population Analysis:

                                       Natural Population
                Natural  -----------------------------------------------
    Atom  No    Charge         Core      Valence    Rydberg      Total
 -----------------------------------------------------------------------
      H    1    0.44437      0.00000     0.54895    0.00668     0.55563
      H    2    0.42245      0.00000     0.56988    0.00767     0.57755
      O    3   -0.86682      1.99979     6.84914    0.01789     8.86682
 =======================================================================
   * Total *    0.00000      1.99979     7.96797    0.03224    10.00000

 Normal termination of Gaussian 09 at Thu May 16 09:05:16 2019.
