 Gaussian 09, Revision D.01,
 Gaussian 09:  EM64L-G09RevD.01 24-Apr-2013

 -------------------------------------------------
 # B2PLYP/def2tzvpp nosym scf(tight) force Pop=NPA
 -------------------------------------------------

 -----
 xPert
 -----
 Symbolic Z-matrix:
 Charge =  0 Multiplicity = 1

                          Input orientation:
 ---------------------------------------------------------------------
 Center     Atomic      Atomic             Coordinates (Angstroms)
 Number     Number       Type             X           Y           Z
 ---------------------------------------------------------------------
      1          1           0        0.000000    0.758568   -0.469403
      2          1           0        0.000000   -0.758568   -0.469403
      3          8           0        0.000000    0.200000    0.117351
 ---------------------------------------------------------------------

 SCF Done:  E(RB2PLYP) =  -76.2792787429     A.U. after   10 cycles
 E2(B2PLYP) =    -0.8389824994D-01 E(B2PLYP) =    -0.76363176992829D+02

 Alpha  occ. eigenvalues --  -19.72350  -1.17280  -0.60377  -0.47117  -0.39787
 Alpha virt. eigenvalues --    0.04584   0.13466   0.37441   0.45774   0.49018
 Alpha virt. eigenvalues --    0.52210   0.62946   0.64620   0.70647   0.74381
 Alpha virt. eigenvalues --    0.84562   1.07733   1.17991   1.39545   1.74134

 Mulliken charges:
               1
     1  H    0.104173
     2  H    0.258609
     3  O   -0.362782
 Sum of Mulliken charges =   0.00000

 Dipole moment (field-independent basis, Debye):
    X=              0.0000    Y=             -0.4835    Z=             -2.0006  Tot=              2.0582
 Quadrupole moment (field-independent basis, Debye-Ang):
   XX=             -7.4629   YY=             -4.4081   ZZ=             -6.2079
   XY=              0.0000   XZ=              0.0000   YZ=             -0.1447

 Summary of Natural Population Analysis:

                                       Natural Population
                Natural  -----------------------------------------------
    Atom  No    Charge         Core      Valence    Rydberg      Total
 -----------------------------------------------------------------------
      H    1    0.42077      0.00000     0.57150    0.00774     0.57923
      H    2    0.44847      0.00000     0.54636    0.00517     0.55153
      O    3   -0.86924      1.99976     6.85456    0.01492     8.86924
 =======================================================================
   * Total *    0.00000      1.99976     7.97241    0.02783    10.00000

 Normal termination of Gaussian 09 at Thu May 16 09:05:13 2019.
