 Gaussian 09, Revision D.01,
 Gaussian 09:  EM64L-G09RevD.01 24-Apr-2013

 -------------------------------------------------
 # B2PLYP/def2tzvpp nosym scf(tight) force Pop=NPA
 -------------------------------------------------

 -----
 xPert
 -----
 Symbolic Z-matrix:
 Charge =  0 Multiplicity = 1

                          Input orientation:
 ---------------------------------------------------------------------
 Center     Atomic      Atomic             Coordinates (Angstroms)
 Number     Number       Type             X           Y           Z
 ---------------------------------------------------------------------
      1          1           0        0.000000    0.758568   -0.269403
      2          1           0        0.000000   -0.758568   -0.469403
      3          8           0        0.000000    0.000000    0.117351
 ---------------------------------------------------------------------

 SCF Done:  E(RB2PLYP) =  -76.3156028402     A.U. after   10 cycles
 E2(B2PLYP) =    -0.8163304784D-01 E(B2PLYP) =    -0.76397235888086D+02

 Alpha  occ. eigenvalues --  -19.71165  -1.17472  -0.65455  -0.45759  -0.39860
 Alpha virt. eigenvalues --    0.06754   0.13981   0.44625   0.45128   0.49130
 Alpha virt. eigenvalues --    0.50069   0.61662   0.63367   0.73834   0.79582
 Alpha virt. eigenvalues --    0.89856   1.07446   1.25361   1.38536   1.73708

 Mulliken charges:
               1
     1  H    0.155782
     2  H    0.229040
     3  O   -0.384822
 Sum of Mulliken charges =   0.00000

 Dipole moment (field-independent basis, Debye):
    X=              0.0000    Y=              0.0514    Z=             -1.7948  Tot=              1.7956
 Quadrupole moment (field-independent basis, Debye-Ang):
   XX=             -7.3600   YY=             -4.0359   ZZ=             -6.5030
   XY=              0.0000   XZ=              0.0000   YZ=              0.3612

 Summary of Natural Population Analysis:

                                       Natural Population
                Natural  -----------------------------------------------
    Atom  No    Charge         Core      Valence    Rydberg      Total
 -----------------------------------------------------------------------
      H    1    0.44798      0.00000     0.54572    0.00630     0.55202
      H    2    0.46715      0.00000     0.52724    0.00561     0.53285
      O    3   -0.91513      1.99980     6.90047    0.01486     8.91513
 =======================================================================
   * Total *    0.00000      1.99980     7.97344    0.02676    10.00000

 Normal termination of Gaussian 09 at Thu May 16 09:05:17 2019.
