 Gaussian 09, Revision D.01,
 Gaussian 09:  EM64L-G09RevD.01 24-Apr-2013

 -------------------------------------------------
 # B2PLYP/def2tzvpp nosym scf(tight) force Pop=NPA
 -------------------------------------------------

 -----
 xPert
 -----
 Symbolic Z-matrix:
 Charge =  0 Multiplicity = 1

                          Input orientation:
 ---------------------------------------------------------------------
 Center     Atomic      Atomic             Coordinates (Angstroms)
 Number     Number       Type             X           Y           Z
 ---------------------------------------------------------------------
      1          1           0        0.000000    0.758568   -0.469403
      2          1           0        0.000000   -0.758568   -0.469403
      3          8           0        0.000000    0.000000    0.317351
 ---------------------------------------------------------------------

 SCF Done:  E(RB2PLYP) =  -76.2959303201     A.U. after   10 cycles
 E2(B2PLYP) =    -0.8923301578D-01 E(B2PLYP) =    -0.76385163335921D+02

 Alpha  occ. eigenvalues --  -19.75264  -1.10980  -0.52754  -0.48496  -0.39198
 Alpha virt. eigenvalues --    0.03683   0.11007   0.36455   0.43505   0.47681
 Alpha virt. eigenvalues --    0.49440   0.59057   0.61816   0.65134   0.76088
 Alpha virt. eigenvalues --    0.76094   1.04628   1.21981   1.23096   1.80713

 Mulliken charges:
               1
     1  H    0.235719
     2  H    0.235719
     3  O   -0.471437
 Sum of Mulliken charges =   0.00000

 Dipole moment (field-independent basis, Debye):
    X=              0.0000    Y=              0.0000    Z=             -2.3139  Tot=              2.3139
 Quadrupole moment (field-independent basis, Debye-Ang):
   XX=             -7.7299   YY=             -4.9103   ZZ=             -6.4566
   XY=              0.0000   XZ=              0.0000   YZ=              0.0000

 Summary of Natural Population Analysis:

                                       Natural Population
                Natural  -----------------------------------------------
    Atom  No    Charge         Core      Valence    Rydberg      Total
 -----------------------------------------------------------------------
      H    1    0.44885      0.00000     0.54421    0.00694     0.55115
      H    2    0.44885      0.00000     0.54421    0.00694     0.55115
      O    3   -0.89770      1.99992     6.88733    0.01045     8.89770
 =======================================================================
   * Total *    0.00000      1.99992     7.97575    0.02432    10.00000

 Normal termination of Gaussian 09 at Thu May 16 09:08:11 2019.
