 Gaussian 09, Revision D.01,
 Gaussian 09:  EM64L-G09RevD.01 24-Apr-2013

 -------------------------------------------------
 # B2PLYP/def2tzvpp nosym scf(tight) force Pop=NPA
 -------------------------------------------------

 -----
 xPert
 -----
 Symbolic Z-matrix:
 Charge =  0 Multiplicity = 1

                          Input orientation:
 ---------------------------------------------------------------------
 Center     Atomic      Atomic             Coordinates (Angstroms)
 Number     Number       Type             X           Y           Z
 ---------------------------------------------------------------------
      1          1           0        0.000000    0.758568   -0.469403
      2          1           0       -0.010000   -0.758568   -0.469403
      3          8           0        0.000000    0.000000    0.117351
 ---------------------------------------------------------------------

 SCF Done:  E(RB2PLYP) =  -76.3297592701     A.U. after   10 cycles
 E2(B2PLYP) =    -0.8353334682D-01 E(B2PLYP) =    -0.76413292616932D+02

 Alpha  occ. eigenvalues --  -19.72551  -1.15304  -0.60903  -0.47085  -0.39615
 Alpha virt. eigenvalues --    0.06024   0.13542   0.42539   0.46145   0.48807
 Alpha virt. eigenvalues --    0.49412   0.60720   0.62585   0.71745   0.74953
 Alpha virt. eigenvalues --    0.84263   1.07864   1.24544   1.30707   1.80241

 Mulliken charges:
               1
     1  H    0.212362
     2  H    0.212388
     3  O   -0.424750
 Sum of Mulliken charges =   0.00000

 Dipole moment (field-independent basis, Debye):
    X=             -0.0170    Y=              0.0000    Z=             -1.9962  Tot=              1.9963
 Quadrupole moment (field-independent basis, Debye-Ang):
   XX=             -7.4698   YY=             -4.3028   ZZ=             -6.2385
   XY=              0.0209   XZ=              0.0125   YZ=              0.0000

 Summary of Natural Population Analysis:

                                       Natural Population
                Natural  -----------------------------------------------
    Atom  No    Charge         Core      Valence    Rydberg      Total
 -----------------------------------------------------------------------
      H    1    0.45692      0.00000     0.53653    0.00655     0.54308
      H    2    0.45693      0.00000     0.53653    0.00655     0.54307
      O    3   -0.91385      1.99986     6.90050    0.01349     8.91385
 =======================================================================
   * Total *    0.00000      1.99986     7.97355    0.02659    10.00000

 Optimization completed.
    -- Stationary point found.
 Normal termination of Gaussian 09 at Thu May 16 09:03:45 2019.
