 Gaussian 09, Revision D.01,
 Gaussian 09:  EM64L-G09RevD.01 24-Apr-2013

 -------------------------------------------------
 # B2PLYP/def2tzvpp nosym scf(tight) force Pop=NPA
 -------------------------------------------------

 -----
 xPert
 -----
 Symbolic Z-matrix:
 Charge =  0 Multiplicity = 1

                          Input orientation:
 ---------------------------------------------------------------------
 Center     Atomic      Atomic             Coordinates (Angstroms)
 Number     Number       Type             X           Y           Z
 ---------------------------------------------------------------------
      1          1           0        0.000000    0.748568   -0.469403
      2          1           0        0.000000   -0.758568   -0.469403
      3          8           0        0.000000    0.000000    0.117351
 ---------------------------------------------------------------------

 SCF Done:  E(RB2PLYP) =  -76.3298065908     A.U. after   10 cycles
 E2(B2PLYP) =    -0.8341807943D-01 E(B2PLYP) =    -0.76413224670272D+02

 Alpha  occ. eigenvalues --  -19.72504  -1.15522  -0.61016  -0.47208  -0.39659
 Alpha virt. eigenvalues --    0.06069   0.13606   0.42602   0.46103   0.49171
 Alpha virt. eigenvalues --    0.49392   0.60827   0.62618   0.71598   0.75108
 Alpha virt. eigenvalues --    0.84180   1.08198   1.24813   1.30909   1.79715

 Mulliken charges:
               1
     1  H    0.207776
     2  H    0.211882
     3  O   -0.419658
 Sum of Mulliken charges =   0.00000

 Dipole moment (field-independent basis, Debye):
    X=              0.0000    Y=             -0.0123    Z=             -1.9991  Tot=              1.9992
 Quadrupole moment (field-independent basis, Debye-Ang):
   XX=             -7.4605   YY=             -4.3265   ZZ=             -6.2258
   XY=              0.0000   XZ=              0.0000   YZ=              0.0064

 Summary of Natural Population Analysis:

                                       Natural Population
                Natural  -----------------------------------------------
    Atom  No    Charge         Core      Valence    Rydberg      Total
 -----------------------------------------------------------------------
      H    1    0.45582      0.00000     0.53758    0.00660     0.54418
      H    2    0.45639      0.00000     0.53707    0.00654     0.54361
      O    3   -0.91221      1.99986     6.89867    0.01369     8.91221
 =======================================================================
   * Total *    0.00000      1.99986     7.97332    0.02683    10.00000

 Normal termination of Gaussian 09 at Thu May 16 09:03:49 2019.
