 Gaussian 09, Revision D.01,
 Gaussian 09:  EM64L-G09RevD.01 24-Apr-2013

 -------------------------------------------------
 # B2PLYP/def2tzvpp nosym scf(tight) force Pop=NPA
 -------------------------------------------------

 -----
 xPert
 -----
 Symbolic Z-matrix:
 Charge =  0 Multiplicity = 1

                          Input orientation:
 ---------------------------------------------------------------------
 Center     Atomic      Atomic             Coordinates (Angstroms)
 Number     Number       Type             X           Y           Z
 ---------------------------------------------------------------------
      1          1           0        0.000000    0.758568   -0.469403
      2          1           0        0.000000   -0.758568   -0.479403
      3          8           0        0.000000    0.000000    0.117351
 ---------------------------------------------------------------------

 SCF Done:  E(RB2PLYP) =  -76.3296049962     A.U. after   10 cycles
 E2(B2PLYP) =    -0.8364888737D-01 E(B2PLYP) =    -0.76413253883544D+02

 Alpha  occ. eigenvalues --  -19.72620  -1.15196  -0.60678  -0.47134  -0.39602
 Alpha virt. eigenvalues --    0.05975   0.13504   0.42362   0.46195   0.48747
 Alpha virt. eigenvalues --    0.49421   0.60664   0.62607   0.71426   0.74989
 Alpha virt. eigenvalues --    0.84022   1.07827   1.24484   1.30428   1.80637

 Mulliken charges:
               1
     1  H    0.211710
     2  H    0.214799
     3  O   -0.426510
 Sum of Mulliken charges =   0.00000

 Dipole moment (field-independent basis, Debye):
    X=              0.0000    Y=              0.0037    Z=             -2.0053  Tot=              2.0053
 Quadrupole moment (field-independent basis, Debye-Ang):
   XX=             -7.4762   YY=             -4.3169   ZZ=             -6.2224
   XY=              0.0000   XZ=              0.0000   YZ=              0.0160

 Summary of Natural Population Analysis:

                                       Natural Population
                Natural  -----------------------------------------------
    Atom  No    Charge         Core      Valence    Rydberg      Total
 -----------------------------------------------------------------------
      H    1    0.45658      0.00000     0.53682    0.00660     0.54342
      H    2    0.45698      0.00000     0.53647    0.00655     0.54302
      O    3   -0.91356      1.99986     6.90029    0.01342     8.91356
 =======================================================================
   * Total *    0.00000      1.99986     7.97358    0.02656    10.00000

 Normal termination of Gaussian 09 at Thu May 16 09:04:06 2019.
