 Gaussian 09, Revision D.01,
 Gaussian 09:  EM64L-G09RevD.01 24-Apr-2013

 -------------------------------------------------
 # B2PLYP/def2tzvpp nosym scf(tight) force Pop=NPA
 -------------------------------------------------

 -----
 xPert
 -----
 Symbolic Z-matrix:
 Charge =  0 Multiplicity = 1

                          Input orientation:
 ---------------------------------------------------------------------
 Center     Atomic      Atomic             Coordinates (Angstroms)
 Number     Number       Type             X           Y           Z
 ---------------------------------------------------------------------
      1          1           0        0.000000    0.758568   -0.469403
      2          1           0        0.000000   -0.758568   -0.469403
      3          8           0        0.000000    0.010000    0.117351
 ---------------------------------------------------------------------

 SCF Done:  E(RB2PLYP) =  -76.3296363787     A.U. after   10 cycles
 E2(B2PLYP) =    -0.8353334510D-01 E(B2PLYP) =    -0.76413169723798D+02

 Alpha  occ. eigenvalues --  -19.72550  -1.15311  -0.60903  -0.47085  -0.39616
 Alpha virt. eigenvalues --    0.06021   0.13542   0.42514   0.46145   0.48829
 Alpha virt. eigenvalues --    0.49411   0.60729   0.62588   0.71743   0.74952
 Alpha virt. eigenvalues --    0.84265   1.07865   1.24510   1.30752   1.80171

 Mulliken charges:
               1
     1  H    0.208242
     2  H    0.216330
     3  O   -0.424572
 Sum of Mulliken charges =   0.00000

 Dipole moment (field-independent basis, Debye):
    X=              0.0000    Y=             -0.0247    Z=             -1.9962  Tot=              1.9964
 Quadrupole moment (field-independent basis, Debye-Ang):
   XX=             -7.4700   YY=             -4.3030   ZZ=             -6.2383
   XY=              0.0000   XZ=              0.0000   YZ=             -0.0073

 Summary of Natural Population Analysis:

                                       Natural Population
                Natural  -----------------------------------------------
    Atom  No    Charge         Core      Valence    Rydberg      Total
 -----------------------------------------------------------------------
      H    1    0.45631      0.00000     0.53708    0.00661     0.54369
      H    2    0.45742      0.00000     0.53610    0.00648     0.54258
      O    3   -0.91373      1.99986     6.90037    0.01350     8.91373
 =======================================================================
   * Total *    0.00000      1.99986     7.97355    0.02659    10.00000

 Normal termination of Gaussian 09 at Thu May 16 09:04:19 2019.
