 Gaussian 09, Revision D.01,
 Gaussian 09:  EM64L-G09RevD.01 24-Apr-2013

 -------------------------------------------------
 # B2PLYP/def2tzvpp nosym scf(tight) force Pop=NPA
 -------------------------------------------------

 -----
 xPert
 -----
 Symbolic Z-matrix:
 Charge =  0 Multiplicity = 1

                          Input orientation:
 ---------------------------------------------------------------------
 Center     Atomic      Atomic             Coordinates (Angstroms)
 Number     Number       Type             X           Y           Z
 ---------------------------------------------------------------------
      1          1           0        0.000000    0.758568   -0.469403
      2          1           0        0.000000   -0.758568   -0.459403
      3          8           0        0.000000    0.000000    0.117351
 ---------------------------------------------------------------------

 SCF Done:  E(RB2PLYP) =  -76.3298358489     A.U. after   10 cycles
 E2(B2PLYP) =    -0.8341792828D-01 E(B2PLYP) =    -0.76413253777158D+02

 Alpha  occ. eigenvalues --  -19.72481  -1.15415  -0.61131  -0.47033  -0.39628
 Alpha virt. eigenvalues --    0.06072   0.13579   0.42710   0.46095   0.48871
 Alpha virt. eigenvalues --    0.49402   0.60779   0.62565   0.72072   0.74915
 Alpha virt. eigenvalues --    0.84511   1.07899   1.24596   1.31008   1.79833

 Mulliken charges:
               1
     1  H    0.213031
     2  H    0.209864
     3  O   -0.422895
 Sum of Mulliken charges =   0.00000

 Dipole moment (field-independent basis, Debye):
    X=              0.0000    Y=             -0.0036    Z=             -1.9870  Tot=              1.9870
 Quadrupole moment (field-independent basis, Debye-Ang):
   XX=             -7.4638   YY=             -4.2885   ZZ=             -6.2541
   XY=              0.0000   XZ=              0.0000   YZ=             -0.0162

 Summary of Natural Population Analysis:

                                       Natural Population
                Natural  -----------------------------------------------
    Atom  No    Charge         Core      Valence    Rydberg      Total
 -----------------------------------------------------------------------
      H    1    0.45728      0.00000     0.53623    0.00650     0.54272
      H    2    0.45682      0.00000     0.53663    0.00655     0.54318
      O    3   -0.91410      1.99986     6.90067    0.01358     8.91410
 =======================================================================
   * Total *    0.00000      1.99986     7.97352    0.02662    10.00000

 Normal termination of Gaussian 09 at Thu May 16 09:04:19 2019.
