 Gaussian 09, Revision D.01,
 Gaussian 09:  EM64L-G09RevD.01 24-Apr-2013

 -------------------------------------------------
 # B2PLYP/def2tzvpp nosym scf(tight) force Pop=NPA
 -------------------------------------------------

 -----
 xPert
 -----
 Symbolic Z-matrix:
 Charge =  0 Multiplicity = 1

                          Input orientation:
 ---------------------------------------------------------------------
 Center     Atomic      Atomic             Coordinates (Angstroms)
 Number     Number       Type             X           Y           Z
 ---------------------------------------------------------------------
      1          1           0        0.000000    0.758568   -0.469403
      2          1           0        0.000000   -0.758568   -0.469403
      3          8           0        0.000000    0.000000    0.127351
 ---------------------------------------------------------------------

 SCF Done:  E(RB2PLYP) =  -76.3294448478     A.U. after   10 cycles
 E2(B2PLYP) =    -0.8376630911D-01 E(B2PLYP) =    -0.76413211156871D+02

 Alpha  occ. eigenvalues --  -19.72689  -1.15086  -0.60453  -0.47184  -0.39589
 Alpha virt. eigenvalues --    0.05926   0.13466   0.42192   0.46244   0.48677
 Alpha virt. eigenvalues --    0.49430   0.60606   0.62630   0.71110   0.75026
 Alpha virt. eigenvalues --    0.83780   1.07789   1.24437   1.30139   1.81069

 Mulliken charges:
               1
     1  H    0.214146
     2  H    0.214146
     3  O   -0.428293
 Sum of Mulliken charges =   0.00000

 Dipole moment (field-independent basis, Debye):
    X=              0.0000    Y=              0.0000    Z=             -2.0144  Tot=              2.0144
 Quadrupole moment (field-independent basis, Debye-Ang):
   XX=             -7.4824   YY=             -4.3313   ZZ=             -6.2468
   XY=              0.0000   XZ=              0.0000   YZ=              0.0000

 Summary of Natural Population Analysis:

                                       Natural Population
                Natural  -----------------------------------------------
    Atom  No    Charge         Core      Valence    Rydberg      Total
 -----------------------------------------------------------------------
      H    1    0.45665      0.00000     0.53676    0.00660     0.54335
      H    2    0.45665      0.00000     0.53676    0.00660     0.54335
      O    3   -0.91330      1.99986     6.90010    0.01334     8.91330
 =======================================================================
   * Total *    0.00000      1.99986     7.97361    0.02653    10.00000

 Normal termination of Gaussian 09 at Thu May 16 09:04:25 2019.
