 Gaussian 09, Revision D.01,
 Gaussian 09:  EM64L-G09RevD.01 24-Apr-2013

 ------------------------------------------------------
 # B2PLYP/def2tzvpp nosym scf(tight) Freq # iop(7/33=1)
 ------------------------------------------------------

 -----
 xPert
 -----
 Symbolic Z-matrix:
 Charge =  0 Multiplicity = 1

                          Input orientation:
 ---------------------------------------------------------------------
 Center     Atomic      Atomic             Coordinates (Angstroms)
 Number     Number       Type             X           Y           Z
 ---------------------------------------------------------------------
      1          1           0        0.000000    0.758568   -0.469403
      2          1           0        0.000000   -0.758568   -0.469403
      3          8           0        0.000000    0.000000    0.117351
 ---------------------------------------------------------------------

 SCF Done:  E(RB2PLYP) =  -76.3297601427     A.U. after   10 cycles
 E2(B2PLYP) =    -0.8353247546D-01 E(B2PLYP) =    -0.76413292618113D+02
 E2(B2PLYP) =    -0.8353247546D-01 E(B2PLYP) =    -0.76413292618113D+02

 Alpha  occ. eigenvalues --  -19.72551  -1.15305  -0.60904  -0.47085  -0.39615
 Alpha virt. eigenvalues --    0.06024   0.13542   0.42539   0.46145   0.48808
 Alpha virt. eigenvalues --    0.49412   0.60720   0.62585   0.71746   0.74953
 Alpha virt. eigenvalues --    0.84264   1.07866   1.24545   1.30709   1.80238

 Mulliken charges:
               1
     1  H    0.212363
     2  H    0.212363
     3  O   -0.424726
 Sum of Mulliken charges =   0.00000

 Dipole moment (field-independent basis, Debye):
    X=              0.00000000000000    Y=              0.00000000000001    Z=             -1.99622626951239  Tot=              1.99622626951239
 Quadrupole moment (field-independent basis, Debye-Ang):
   XX=             -7.46998516295751   YY=             -4.30269606747146   ZZ=             -6.23840413164263
   XY=              0.00000000000000   XZ=              0.00000000000000   YZ=              0.00000000000001

  Exact polarizability:   5.993   0.000   8.553   0.000   0.000   7.507
 Approx polarizability:   5.592   0.000   8.861   0.000   0.000   7.632

                      1                      2                      3
                      A                      A                      A
 Frequencies --   1644.95963087358200              3834.20806406454500              3944.40010631796600
 Red. masses --      1.08311889712588                 1.04475442549504                 1.08191198380675
 Frc consts  --      1.72677911498858                 9.04931565901101                 9.91754136533022
 IR Inten    --     68.13664473438617                 5.23708906635062                52.63765901591171

 - Thermochemistry -
 -------------------
 Temperature   298.150 Kelvin.  Pressure   1.00000 Atm.
 Atom     1 has atomic number  1 and mass   1.00783

 Molecular mass:    18.01056 amu.
 Principal axes and moments of inertia in atomic units:
                           1         2         3
     Eigenvalues --     2.20080   4.14192   6.34272
           X            0.00000   0.00000   1.00000
           Y            1.00000   0.00000   0.00000
           Z            0.00000   1.00000   0.00000
 This molecule is an asymmetric top.
 Rotational symmetry number  2.
 Rotational temperatures (Kelvin)     39.35569    20.91150    13.65563
 Rotational constants (GHZ):         820.04058   435.72554   284.53756
 Zero-point vibrational energy      56365.5 (Joules/Mol)
                                   13.47167 (Kcal/Mol)
 Vibrational temperatures:   2366.73  5516.56  5675.10
          (Kelvin)

 Zero-point correction=                           0.021468 (Hartree/Particle)
 Thermal correction to Energy=                    0.024304
 Thermal correction to Enthalpy=                  0.025248
 Thermal correction to Gibbs Free Energy=         0.003833
 Sum of electronic and zero-point Energies=            -76.391824
 Sum of electronic and thermal Energies=               -76.388989
 Sum of electronic and thermal Enthalpies=             -76.388045
 Sum of electronic and thermal Free Energies=          -76.409460

                     E (Thermal)             CV                S
                      KCal/Mol        Cal/Mol-Kelvin    Cal/Mol-Kelvin
 Total                   15.251              6.006             45.071
 Electronic               0.000              0.000              0.000
 Translational            0.889              2.981             34.608
 Rotational               0.889              2.981             10.457
 Vibrational             13.473              0.045              0.006

 Optimization completed.
    -- Stationary point found.
 Normal termination of Gaussian 09 at Thu Apr 16 09:46:54 2020.
